<?xml version="1.0" encoding="UTF-8"?>

<!-- generated on 2023-12-28 02:48:10 by Eclipse SUMO GUI Version 1.19.0
<configuration xmlns:xsi="http://www.w3.org/2001/XMLSchema-instance" xsi:noNamespaceSchemaLocation="http://sumo.dlr.de/xsd/sumoConfiguration.xsd">

    <input>
        <net-file value="grid/demo.net.xml"/>
        <route-files value="grid/demo.rou.xml"/>
        <additional-files value="grid/demo.det.xml"/>
    </input>

    <output>
        <tripinfo-output value="tripinfo.xml"/>
    </output>

    <time>
        <begin value="0"/>
        <end value="800"/>
    </time>

    <processing>
        <time-to-teleport value="-1"/>
    </processing>

    <traci_server>
        <remote-port value="45507"/>
    </traci_server>

</configuration>
-->

<tripinfos xmlns:xsi="http://www.w3.org/2001/XMLSchema-instance" xsi:noNamespaceSchemaLocation="http://sumo.dlr.de/xsd/tripinfo_file.xsd">
    <tripinfo id="gen5.0" depart="0.00" departLane="(5_2)_1" departPos="5.10" departSpeed="0.00" departDelay="0.00" arrival="16.00" arrivalLane="(2_4)_1" arrivalPos="86.40" arrivalSpeed="16.30" duration="16.00" routeLength="194.90" waitingTime="0.00" waitingCount="0" stopTime="0.00" timeLoss="4.26" rerouteNo="0" devices="tripinfo_gen5.0 routing_gen5.0" vType="DEFAULT_VEHTYPE" speedFactor="1.03" vaporized=""/>
    <tripinfo id="gen3.0" depart="0.00" departLane="(4_2)_1" departPos="5.10" departSpeed="0.00" departDelay="0.00" arrival="18.00" arrivalLane="(2_1)_0" arrivalPos="86.40" arrivalSpeed="15.74" duration="18.00" routeLength="176.73" waitingTime="0.00" waitingCount="0" stopTime="0.00" timeLoss="6.71" rerouteNo="0" devices="tripinfo_gen3.0 routing_gen3.0" vType="DEFAULT_VEHTYPE" speedFactor="1.01" vaporized=""/>
    <tripinfo id="gen4.0" depart="2.00" departLane="(4_2)_0" departPos="5.10" departSpeed="0.00" departDelay="2.00" arrival="18.00" arrivalLane="(2_5)_2" arrivalPos="86.40" arrivalSpeed="17.26" duration="16.00" routeLength="194.90" waitingTime="0.00" waitingCount="0" stopTime="0.00" timeLoss="4.65" rerouteNo="0" devices="tripinfo_gen4.0 routing_gen4.0" vType="DEFAULT_VEHTYPE" speedFactor="1.08" vaporized=""/>
    <tripinfo id="gen4.1" depart="4.00" departLane="(4_2)_2" departPos="5.10" departSpeed="0.00" departDelay="0.67" arrival="21.00" arrivalLane="(2_5)_0" arrivalPos="86.40" arrivalSpeed="14.31" duration="17.00" routeLength="194.90" waitingTime="0.00" waitingCount="0" stopTime="0.00" timeLoss="3.47" rerouteNo="0" devices="tripinfo_gen4.1 routing_gen4.1" vType="DEFAULT_VEHTYPE" speedFactor="0.89" vaporized=""/>
    <tripinfo id="gen6.0" depart="1.00" departLane="(5_2)_2" departPos="5.10" departSpeed="0.00" departDelay="1.00" arrival="23.00" arrivalLane="(2_3)_2" arrivalPos="86.40" arrivalSpeed="13.25" duration="22.00" routeLength="176.73" waitingTime="0.00" waitingCount="0" stopTime="0.00" timeLoss="7.52" rerouteNo="0" devices="tripinfo_gen6.0 routing_gen6.0" vType="DEFAULT_VEHTYPE" speedFactor="0.83" vaporized=""/>
    <tripinfo id="gen3.1" depart="6.00" departLane="(4_2)_0" departPos="5.10" departSpeed="0.00" departDelay="2.67" arrival="24.00" arrivalLane="(2_1)_0" arrivalPos="86.40" arrivalSpeed="16.72" duration="18.00" routeLength="176.73" waitingTime="0.00" waitingCount="0" stopTime="0.00" timeLoss="6.53" rerouteNo="0" devices="tripinfo_gen3.1 routing_gen3.1" vType="DEFAULT_VEHTYPE" speedFactor="1.05" vaporized=""/>
    <tripinfo id="gen5.1" depart="5.00" departLane="(5_2)_1" departPos="5.10" departSpeed="0.00" departDelay="0.00" arrival="24.00" arrivalLane="(2_4)_0" arrivalPos="86.40" arrivalSpeed="17.63" duration="19.00" routeLength="194.90" waitingTime="0.00" waitingCount="0" stopTime="0.00" timeLoss="7.39" rerouteNo="0" devices="tripinfo_gen5.1 routing_gen5.1" vType="DEFAULT_VEHTYPE" speedFactor="1.09" vaporized=""/>
    <tripinfo id="gen6.1" depart="5.00" departLane="(5_2)_2" departPos="5.10" departSpeed="0.00" departDelay="0.00" arrival="26.00" arrivalLane="(2_3)_1" arrivalPos="86.40" arrivalSpeed="16.02" duration="21.00" routeLength="176.73" waitingTime="0.00" waitingCount="0" stopTime="0.00" timeLoss="9.72" rerouteNo="0" devices="tripinfo_gen6.1 routing_gen6.1" vType="DEFAULT_VEHTYPE" speedFactor="1.03" vaporized=""/>
    <tripinfo id="gen3.2" depart="7.00" departLane="(4_2)_2" departPos="5.10" departSpeed="0.00" departDelay="0.33" arrival="27.00" arrivalLane="(2_1)_0" arrivalPos="86.40" arrivalSpeed="17.00" duration="20.00" routeLength="176.73" waitingTime="0.00" waitingCount="0" stopTime="0.00" timeLoss="8.70" rerouteNo="0" devices="tripinfo_gen3.2 routing_gen3.2" vType="DEFAULT_VEHTYPE" speedFactor="1.05" vaporized=""/>
    <tripinfo id="gen4.2" depart="8.00" departLane="(4_2)_1" departPos="5.10" departSpeed="0.00" departDelay="1.33" arrival="28.00" arrivalLane="(2_5)_0" arrivalPos="86.40" arrivalSpeed="17.83" duration="20.00" routeLength="194.90" waitingTime="0.00" waitingCount="0" stopTime="0.00" timeLoss="9.58" rerouteNo="0" devices="tripinfo_gen4.2 routing_gen4.2" vType="DEFAULT_VEHTYPE" speedFactor="1.12" vaporized=""/>
    <tripinfo id="gen6.2" depart="10.00" departLane="(5_2)_2" departPos="5.10" departSpeed="0.00" departDelay="0.00" arrival="29.00" arrivalLane="(2_3)_0" arrivalPos="86.40" arrivalSpeed="18.45" duration="19.00" routeLength="176.73" waitingTime="0.00" waitingCount="0" stopTime="0.00" timeLoss="8.64" rerouteNo="0" devices="tripinfo_gen6.2 routing_gen6.2" vType="DEFAULT_VEHTYPE" speedFactor="1.16" vaporized=""/>
    <tripinfo id="gen4.3" depart="13.00" departLane="(4_2)_2" departPos="5.10" departSpeed="0.00" departDelay="3.00" arrival="30.00" arrivalLane="(2_5)_1" arrivalPos="86.40" arrivalSpeed="15.13" duration="17.00" routeLength="194.90" waitingTime="0.00" waitingCount="0" stopTime="0.00" timeLoss="3.76" rerouteNo="0" devices="tripinfo_gen4.3 routing_gen4.3" vType="DEFAULT_VEHTYPE" speedFactor="0.94" vaporized=""/>
    <tripinfo id="gen5.2" depart="10.00" departLane="(5_2)_1" departPos="5.10" departSpeed="0.00" departDelay="0.00" arrival="30.00" arrivalLane="(2_4)_1" arrivalPos="86.40" arrivalSpeed="14.93" duration="20.00" routeLength="194.90" waitingTime="0.00" waitingCount="0" stopTime="0.00" timeLoss="7.48" rerouteNo="0" devices="tripinfo_gen5.2 routing_gen5.2" vType="DEFAULT_VEHTYPE" speedFactor="0.94" vaporized=""/>
    <tripinfo id="gen4.4" depart="14.00" departLane="(4_2)_1" departPos="5.10" departSpeed="0.00" departDelay="0.67" arrival="31.00" arrivalLane="(2_5)_1" arrivalPos="86.40" arrivalSpeed="15.62" duration="17.00" routeLength="194.90" waitingTime="0.00" waitingCount="0" stopTime="0.00" timeLoss="4.79" rerouteNo="0" devices="tripinfo_gen4.4 routing_gen4.4" vType="DEFAULT_VEHTYPE" speedFactor="0.97" vaporized=""/>
    <tripinfo id="gen3.3" depart="10.00" departLane="(4_2)_2" departPos="5.10" departSpeed="0.00" departDelay="0.00" arrival="33.00" arrivalLane="(2_1)_0" arrivalPos="86.40" arrivalSpeed="13.48" duration="23.00" routeLength="176.73" waitingTime="0.00" waitingCount="0" stopTime="0.00" timeLoss="9.71" rerouteNo="0" devices="tripinfo_gen3.3 routing_gen3.3" vType="DEFAULT_VEHTYPE" speedFactor="0.88" vaporized=""/>
    <tripinfo id="gen3.4" depart="16.00" departLane="(4_2)_0" departPos="5.10" departSpeed="0.00" departDelay="2.67" arrival="35.00" arrivalLane="(2_1)_0" arrivalPos="86.40" arrivalSpeed="16.44" duration="19.00" routeLength="176.73" waitingTime="0.00" waitingCount="0" stopTime="0.00" timeLoss="7.68" rerouteNo="0" devices="tripinfo_gen3.4 routing_gen3.4" vType="DEFAULT_VEHTYPE" speedFactor="1.01" vaporized=""/>
    <tripinfo id="gen6.3" depart="15.00" departLane="(5_2)_1" departPos="5.10" departSpeed="0.00" departDelay="0.00" arrival="35.00" arrivalLane="(2_3)_1" arrivalPos="86.40" arrivalSpeed="13.40" duration="20.00" routeLength="176.73" waitingTime="0.00" waitingCount="0" stopTime="0.00" timeLoss="6.20" rerouteNo="0" devices="tripinfo_gen6.3 routing_gen6.3" vType="DEFAULT_VEHTYPE" speedFactor="0.87" vaporized=""/>
    <tripinfo id="gen4.6" depart="21.00" departLane="(4_2)_2" departPos="5.10" departSpeed="0.00" departDelay="1.00" arrival="36.00" arrivalLane="(2_5)_2" arrivalPos="86.40" arrivalSpeed="18.44" duration="15.00" routeLength="194.90" waitingTime="0.00" waitingCount="0" stopTime="0.00" timeLoss="4.44" rerouteNo="0" devices="tripinfo_gen4.6 routing_gen4.6" vType="DEFAULT_VEHTYPE" speedFactor="1.15" vaporized=""/>
    <tripinfo id="gen5.4" depart="20.00" departLane="(5_2)_0" departPos="5.10" departSpeed="0.00" departDelay="0.00" arrival="36.00" arrivalLane="(2_4)_2" arrivalPos="86.40" arrivalSpeed="15.56" duration="16.00" routeLength="194.90" waitingTime="0.00" waitingCount="0" stopTime="0.00" timeLoss="3.61" rerouteNo="0" devices="tripinfo_gen5.4 routing_gen5.4" vType="DEFAULT_VEHTYPE" speedFactor="1.01" vaporized=""/>
    <tripinfo id="gen4.5" depart="18.00" departLane="(4_2)_2" departPos="5.10" departSpeed="0.00" departDelay="1.34" arrival="37.00" arrivalLane="(2_5)_0" arrivalPos="86.40" arrivalSpeed="14.88" duration="19.00" routeLength="194.90" waitingTime="0.00" waitingCount="0" stopTime="0.00" timeLoss="6.43" rerouteNo="0" devices="tripinfo_gen4.5 routing_gen4.5" vType="DEFAULT_VEHTYPE" speedFactor="0.95" vaporized=""/>
    <tripinfo id="gen5.3" depart="15.00" departLane="(5_2)_0" departPos="5.10" departSpeed="0.00" departDelay="0.00" arrival="38.00" arrivalLane="(2_4)_0" arrivalPos="86.40" arrivalSpeed="13.08" duration="23.00" routeLength="194.90" waitingTime="1.00" waitingCount="1" stopTime="0.00" timeLoss="8.39" rerouteNo="0" devices="tripinfo_gen5.3 routing_gen5.3" vType="DEFAULT_VEHTYPE" speedFactor="0.83" vaporized=""/>
    <tripinfo id="gen6.4" depart="20.00" departLane="(5_2)_2" departPos="5.10" departSpeed="0.00" departDelay="0.00" arrival="39.00" arrivalLane="(2_3)_1" arrivalPos="86.40" arrivalSpeed="19.32" duration="19.00" routeLength="176.73" waitingTime="0.00" waitingCount="0" stopTime="0.00" timeLoss="9.25" rerouteNo="0" devices="tripinfo_gen6.4 routing_gen6.4" vType="DEFAULT_VEHTYPE" speedFactor="1.17" vaporized=""/>
    <tripinfo id="gen5.5" depart="25.00" departLane="(5_2)_1" departPos="5.10" departSpeed="0.00" departDelay="0.00" arrival="40.00" arrivalLane="(2_4)_2" arrivalPos="86.40" arrivalSpeed="17.09" duration="15.00" routeLength="194.90" waitingTime="0.00" waitingCount="0" stopTime="0.00" timeLoss="4.26" rerouteNo="0" devices="tripinfo_gen5.5 routing_gen5.5" vType="DEFAULT_VEHTYPE" speedFactor="1.10" vaporized=""/>
    <tripinfo id="gen3.5" depart="17.00" departLane="(4_2)_2" departPos="5.10" departSpeed="0.00" departDelay="0.34" arrival="41.00" arrivalLane="(2_1)_0" arrivalPos="86.40" arrivalSpeed="14.13" duration="24.00" routeLength="176.73" waitingTime="0.00" waitingCount="0" stopTime="0.00" timeLoss="10.49" rerouteNo="0" devices="tripinfo_gen3.5 routing_gen3.5" vType="DEFAULT_VEHTYPE" speedFactor="0.92" vaporized=""/>
    <tripinfo id="gen3.6" depart="20.00" departLane="(4_2)_1" departPos="5.10" departSpeed="0.00" departDelay="0.00" arrival="42.00" arrivalLane="(2_1)_0" arrivalPos="86.40" arrivalSpeed="15.83" duration="22.00" routeLength="176.73" waitingTime="0.00" waitingCount="0" stopTime="0.00" timeLoss="12.45" rerouteNo="0" devices="tripinfo_gen3.6 routing_gen3.6" vType="DEFAULT_VEHTYPE" speedFactor="1.18" vaporized=""/>
    <tripinfo id="gen4.7" depart="24.00" departLane="(4_2)_0" departPos="5.10" departSpeed="0.00" departDelay="0.67" arrival="45.00" arrivalLane="(2_5)_0" arrivalPos="86.40" arrivalSpeed="15.48" duration="21.00" routeLength="194.90" waitingTime="0.00" waitingCount="0" stopTime="0.00" timeLoss="8.39" rerouteNo="0" devices="tripinfo_gen4.7 routing_gen4.7" vType="DEFAULT_VEHTYPE" speedFactor="0.97" vaporized=""/>
    <tripinfo id="gen6.5" depart="25.00" departLane="(5_2)_0" departPos="5.10" departSpeed="0.00" departDelay="0.00" arrival="45.00" arrivalLane="(2_3)_0" arrivalPos="86.40" arrivalSpeed="14.21" duration="20.00" routeLength="176.73" waitingTime="0.00" waitingCount="0" stopTime="0.00" timeLoss="6.95" rerouteNo="0" devices="tripinfo_gen6.5 routing_gen6.5" vType="DEFAULT_VEHTYPE" speedFactor="0.90" vaporized=""/>
    <tripinfo id="gen5.6" depart="30.00" departLane="(5_2)_2" departPos="5.10" departSpeed="0.00" departDelay="0.00" arrival="46.00" arrivalLane="(2_4)_1" arrivalPos="86.40" arrivalSpeed="15.82" duration="16.00" routeLength="194.90" waitingTime="0.00" waitingCount="0" stopTime="0.00" timeLoss="3.84" rerouteNo="0" devices="tripinfo_gen5.6 routing_gen5.6" vType="DEFAULT_VEHTYPE" speedFactor="1.00" vaporized=""/>
    <tripinfo id="gen3.7" depart="24.00" departLane="(4_2)_1" departPos="5.10" departSpeed="0.00" departDelay="0.67" arrival="47.00" arrivalLane="(2_1)_0" arrivalPos="86.40" arrivalSpeed="16.53" duration="23.00" routeLength="176.73" waitingTime="0.00" waitingCount="0" stopTime="0.00" timeLoss="11.60" rerouteNo="0" devices="tripinfo_gen3.7 routing_gen3.7" vType="DEFAULT_VEHTYPE" speedFactor="1.02" vaporized=""/>
    <tripinfo id="gen4.9" depart="31.00" departLane="(4_2)_2" departPos="5.10" departSpeed="0.00" departDelay="1.00" arrival="47.00" arrivalLane="(2_5)_1" arrivalPos="86.40" arrivalSpeed="17.94" duration="16.00" routeLength="194.90" waitingTime="0.00" waitingCount="0" stopTime="0.00" timeLoss="4.71" rerouteNo="0" devices="tripinfo_gen4.9 routing_gen4.9" vType="DEFAULT_VEHTYPE" speedFactor="1.09" vaporized=""/>
    <tripinfo id="gen6.6" depart="30.00" departLane="(5_2)_0" departPos="5.10" departSpeed="0.00" departDelay="0.00" arrival="50.00" arrivalLane="(2_3)_1" arrivalPos="86.40" arrivalSpeed="14.76" duration="20.00" routeLength="176.73" waitingTime="0.00" waitingCount="0" stopTime="0.00" timeLoss="6.49" rerouteNo="0" devices="tripinfo_gen6.6 routing_gen6.6" vType="DEFAULT_VEHTYPE" speedFactor="0.90" vaporized=""/>
    <tripinfo id="gen2.3" depart="15.00" departLane="(3_2)_1" departPos="5.10" departSpeed="0.00" departDelay="0.00" arrival="53.00" arrivalLane="(2_1)_2" arrivalPos="86.40" arrivalSpeed="14.52" duration="38.00" routeLength="194.90" waitingTime="12.00" waitingCount="2" stopTime="0.00" timeLoss="24.69" rerouteNo="0" devices="tripinfo_gen2.3 routing_gen2.3" vType="DEFAULT_VEHTYPE" speedFactor="0.89" vaporized=""/>
    <tripinfo id="gen2.0" depart="0.00" departLane="(3_2)_2" departPos="5.10" departSpeed="0.00" departDelay="0.00" arrival="55.00" arrivalLane="(2_1)_2" arrivalPos="86.40" arrivalSpeed="15.13" duration="55.00" routeLength="194.90" waitingTime="32.00" waitingCount="1" stopTime="0.00" timeLoss="42.21" rerouteNo="0" devices="tripinfo_gen2.0 routing_gen2.0" vType="DEFAULT_VEHTYPE" speedFactor="0.94" vaporized=""/>
    <tripinfo id="gen1.3" depart="14.00" departLane="(1_2)_1" departPos="5.10" departSpeed="0.00" departDelay="0.96" arrival="55.00" arrivalLane="(2_3)_0" arrivalPos="86.40" arrivalSpeed="16.40" duration="41.00" routeLength="194.90" waitingTime="20.00" waitingCount="1" stopTime="0.00" timeLoss="28.96" rerouteNo="0" devices="tripinfo_gen1.3 routing_gen1.3" vType="DEFAULT_VEHTYPE" speedFactor="1.02" vaporized=""/>
    <tripinfo id="gen1.0" depart="0.00" departLane="(1_2)_0" departPos="5.10" departSpeed="0.00" departDelay="0.00" arrival="58.00" arrivalLane="(2_3)_0" arrivalPos="86.40" arrivalSpeed="17.32" duration="58.00" routeLength="194.90" waitingTime="33.00" waitingCount="2" stopTime="0.00" timeLoss="46.63" rerouteNo="0" devices="tripinfo_gen1.0 routing_gen1.0" vType="DEFAULT_VEHTYPE" speedFactor="1.06" vaporized=""/>
    <tripinfo id="gen3.8" depart="28.00" departLane="(4_2)_2" departPos="5.10" departSpeed="0.00" departDelay="1.34" arrival="59.00" arrivalLane="(2_1)_0" arrivalPos="86.40" arrivalSpeed="15.08" duration="31.00" routeLength="176.73" waitingTime="8.00" waitingCount="1" stopTime="0.00" timeLoss="19.23" rerouteNo="0" devices="tripinfo_gen3.8 routing_gen3.8" vType="DEFAULT_VEHTYPE" speedFactor="0.96" vaporized=""/>
    <tripinfo id="gen4.8" depart="27.00" departLane="(4_2)_0" departPos="5.10" departSpeed="0.00" departDelay="0.34" arrival="61.00" arrivalLane="(2_5)_0" arrivalPos="86.40" arrivalSpeed="17.05" duration="34.00" routeLength="194.90" waitingTime="9.00" waitingCount="2" stopTime="0.00" timeLoss="23.12" rerouteNo="0" devices="tripinfo_gen4.8 routing_gen4.8" vType="DEFAULT_VEHTYPE" speedFactor="1.09" vaporized=""/>
    <tripinfo id="gen4.10" depart="36.00" departLane="(4_2)_2" departPos="5.10" departSpeed="0.00" departDelay="2.67" arrival="61.00" arrivalLane="(2_5)_1" arrivalPos="86.40" arrivalSpeed="13.79" duration="25.00" routeLength="194.90" waitingTime="0.00" waitingCount="0" stopTime="0.00" timeLoss="10.93" rerouteNo="0" devices="tripinfo_gen4.10 routing_gen4.10" vType="DEFAULT_VEHTYPE" speedFactor="0.85" vaporized=""/>
    <tripinfo id="gen4.11" depart="38.00" departLane="(4_2)_1" departPos="5.10" departSpeed="0.00" departDelay="1.34" arrival="61.00" arrivalLane="(2_5)_2" arrivalPos="86.40" arrivalSpeed="14.46" duration="23.00" routeLength="194.90" waitingTime="1.00" waitingCount="1" stopTime="0.00" timeLoss="9.41" rerouteNo="0" devices="tripinfo_gen4.11 routing_gen4.11" vType="DEFAULT_VEHTYPE" speedFactor="0.90" vaporized=""/>
    <tripinfo id="gen5.7" depart="35.00" departLane="(5_2)_0" departPos="5.10" departSpeed="0.00" departDelay="0.00" arrival="62.00" arrivalLane="(2_4)_2" arrivalPos="86.40" arrivalSpeed="18.09" duration="27.00" routeLength="194.90" waitingTime="2.00" waitingCount="1" stopTime="0.00" timeLoss="16.14" rerouteNo="0" devices="tripinfo_gen5.7 routing_gen5.7" vType="DEFAULT_VEHTYPE" speedFactor="1.10" vaporized=""/>
    <tripinfo id="gen6.7" depart="36.00" departLane="(5_2)_1" departPos="5.10" departSpeed="0.00" departDelay="1.00" arrival="62.00" arrivalLane="(2_3)_2" arrivalPos="86.40" arrivalSpeed="16.46" duration="26.00" routeLength="176.73" waitingTime="2.00" waitingCount="2" stopTime="0.00" timeLoss="14.41" rerouteNo="0" devices="tripinfo_gen6.7 routing_gen6.7" vType="DEFAULT_VEHTYPE" speedFactor="1.00" vaporized=""/>
    <tripinfo id="gen4.12" depart="40.00" departLane="(4_2)_2" departPos="5.10" departSpeed="0.00" departDelay="0.00" arrival="63.00" arrivalLane="(2_5)_0" arrivalPos="86.40" arrivalSpeed="17.18" duration="23.00" routeLength="194.90" waitingTime="2.00" waitingCount="1" stopTime="0.00" timeLoss="12.08" rerouteNo="0" devices="tripinfo_gen4.12 routing_gen4.12" vType="DEFAULT_VEHTYPE" speedFactor="1.08" vaporized=""/>
    <tripinfo id="gen5.8" depart="40.00" departLane="(5_2)_1" departPos="5.10" departSpeed="0.00" departDelay="0.00" arrival="63.00" arrivalLane="(2_4)_0" arrivalPos="86.40" arrivalSpeed="17.83" duration="23.00" routeLength="194.90" waitingTime="0.00" waitingCount="0" stopTime="0.00" timeLoss="12.26" rerouteNo="0" devices="tripinfo_gen5.8 routing_gen5.8" vType="DEFAULT_VEHTYPE" speedFactor="1.12" vaporized=""/>
    <tripinfo id="gen3.9" depart="32.00" departLane="(4_2)_1" departPos="5.10" departSpeed="0.00" departDelay="2.00" arrival="64.00" arrivalLane="(2_1)_0" arrivalPos="86.40" arrivalSpeed="17.24" duration="32.00" routeLength="176.73" waitingTime="5.00" waitingCount="1" stopTime="0.00" timeLoss="20.25" rerouteNo="0" devices="tripinfo_gen3.9 routing_gen3.9" vType="DEFAULT_VEHTYPE" speedFactor="1.04" vaporized=""/>
    <tripinfo id="gen6.8" depart="40.00" departLane="(5_2)_0" departPos="5.10" departSpeed="0.00" departDelay="0.00" arrival="65.00" arrivalLane="(2_3)_2" arrivalPos="86.40" arrivalSpeed="16.90" duration="25.00" routeLength="176.73" waitingTime="0.00" waitingCount="0" stopTime="0.00" timeLoss="12.57" rerouteNo="0" devices="tripinfo_gen6.8 routing_gen6.8" vType="DEFAULT_VEHTYPE" speedFactor="1.02" vaporized=""/>
    <tripinfo id="gen4.13" depart="45.00" departLane="(4_2)_1" departPos="5.10" departSpeed="0.00" departDelay="1.67" arrival="66.00" arrivalLane="(2_5)_1" arrivalPos="86.40" arrivalSpeed="13.65" duration="21.00" routeLength="194.90" waitingTime="0.00" waitingCount="0" stopTime="0.00" timeLoss="7.42" rerouteNo="0" devices="tripinfo_gen4.13 routing_gen4.13" vType="DEFAULT_VEHTYPE" speedFactor="0.88" vaporized=""/>
    <tripinfo id="gen4.14" depart="49.00" departLane="(4_2)_2" departPos="5.10" departSpeed="0.00" departDelay="2.34" arrival="67.00" arrivalLane="(2_5)_0" arrivalPos="86.40" arrivalSpeed="16.80" duration="18.00" routeLength="194.90" waitingTime="0.00" waitingCount="0" stopTime="0.00" timeLoss="5.99" rerouteNo="0" devices="tripinfo_gen4.14 routing_gen4.14" vType="DEFAULT_VEHTYPE" speedFactor="1.02" vaporized=""/>
    <tripinfo id="gen3.10" depart="35.00" departLane="(4_2)_1" departPos="5.10" departSpeed="0.00" departDelay="1.67" arrival="68.00" arrivalLane="(2_1)_0" arrivalPos="86.40" arrivalSpeed="13.88" duration="33.00" routeLength="176.73" waitingTime="5.00" waitingCount="1" stopTime="0.00" timeLoss="18.63" rerouteNo="0" devices="tripinfo_gen3.10 routing_gen3.10" vType="DEFAULT_VEHTYPE" speedFactor="0.85" vaporized=""/>
    <tripinfo id="gen5.9" depart="45.00" departLane="(5_2)_1" departPos="5.10" departSpeed="0.00" departDelay="0.00" arrival="68.00" arrivalLane="(2_4)_0" arrivalPos="86.40" arrivalSpeed="15.19" duration="23.00" routeLength="194.90" waitingTime="0.00" waitingCount="0" stopTime="0.00" timeLoss="9.51" rerouteNo="0" devices="tripinfo_gen5.9 routing_gen5.9" vType="DEFAULT_VEHTYPE" speedFactor="0.91" vaporized=""/>
    <tripinfo id="gen3.11" depart="38.00" departLane="(4_2)_0" departPos="5.10" departSpeed="0.00" departDelay="1.34" arrival="69.00" arrivalLane="(2_1)_0" arrivalPos="86.40" arrivalSpeed="15.39" duration="31.00" routeLength="176.73" waitingTime="4.00" waitingCount="1" stopTime="0.00" timeLoss="19.85" rerouteNo="0" devices="tripinfo_gen3.11 routing_gen3.11" vType="DEFAULT_VEHTYPE" speedFactor="1.00" vaporized=""/>
    <tripinfo id="gen4.15" depart="52.00" departLane="(4_2)_1" departPos="5.10" departSpeed="0.00" departDelay="2.01" arrival="69.00" arrivalLane="(2_5)_1" arrivalPos="86.40" arrivalSpeed="15.54" duration="17.00" routeLength="194.90" waitingTime="0.00" waitingCount="0" stopTime="0.00" timeLoss="4.34" rerouteNo="0" devices="tripinfo_gen4.15 routing_gen4.15" vType="DEFAULT_VEHTYPE" speedFactor="0.96" vaporized=""/>
    <tripinfo id="gen5.10" depart="50.00" departLane="(5_2)_1" departPos="5.10" departSpeed="0.00" departDelay="0.00" arrival="69.00" arrivalLane="(2_4)_1" arrivalPos="86.40" arrivalSpeed="15.14" duration="19.00" routeLength="194.90" waitingTime="0.00" waitingCount="0" stopTime="0.00" timeLoss="7.09" rerouteNo="0" devices="tripinfo_gen5.10 routing_gen5.10" vType="DEFAULT_VEHTYPE" speedFactor="0.98" vaporized=""/>
    <tripinfo id="gen6.9" depart="45.00" departLane="(5_2)_2" departPos="5.10" departSpeed="0.00" departDelay="0.00" arrival="70.00" arrivalLane="(2_3)_2" arrivalPos="86.40" arrivalSpeed="16.44" duration="25.00" routeLength="176.73" waitingTime="1.00" waitingCount="1" stopTime="0.00" timeLoss="13.04" rerouteNo="0" devices="tripinfo_gen6.9 routing_gen6.9" vType="DEFAULT_VEHTYPE" speedFactor="1.04" vaporized=""/>
    <tripinfo id="gen3.12" depart="41.00" departLane="(4_2)_0" departPos="5.10" departSpeed="0.00" departDelay="1.00" arrival="72.00" arrivalLane="(2_1)_0" arrivalPos="86.40" arrivalSpeed="15.75" duration="31.00" routeLength="176.73" waitingTime="4.00" waitingCount="1" stopTime="0.00" timeLoss="18.81" rerouteNo="0" devices="tripinfo_gen3.12 routing_gen3.12" vType="DEFAULT_VEHTYPE" speedFactor="0.97" vaporized=""/>
    <tripinfo id="gen6.10" depart="50.00" departLane="(5_2)_2" departPos="5.10" departSpeed="0.00" departDelay="0.00" arrival="72.00" arrivalLane="(2_3)_0" arrivalPos="86.40" arrivalSpeed="16.22" duration="22.00" routeLength="176.73" waitingTime="0.00" waitingCount="0" stopTime="0.00" timeLoss="10.26" rerouteNo="0" devices="tripinfo_gen6.10 routing_gen6.10" vType="DEFAULT_VEHTYPE" speedFactor="1.03" vaporized=""/>
    <tripinfo id="gen5.11" depart="55.00" departLane="(5_2)_1" departPos="5.10" departSpeed="0.00" departDelay="0.00" arrival="72.00" arrivalLane="(2_4)_2" arrivalPos="86.40" arrivalSpeed="15.47" duration="17.00" routeLength="194.90" waitingTime="0.00" waitingCount="0" stopTime="0.00" timeLoss="4.45" rerouteNo="0" devices="tripinfo_gen5.11 routing_gen5.11" vType="DEFAULT_VEHTYPE" speedFactor="1.00" vaporized=""/>
    <tripinfo id="gen6.11" depart="55.00" departLane="(5_2)_0" departPos="5.10" departSpeed="0.00" departDelay="0.00" arrival="74.00" arrivalLane="(2_3)_1" arrivalPos="86.40" arrivalSpeed="16.12" duration="19.00" routeLength="176.73" waitingTime="0.00" waitingCount="0" stopTime="0.00" timeLoss="7.61" rerouteNo="0" devices="tripinfo_gen6.11 routing_gen6.11" vType="DEFAULT_VEHTYPE" speedFactor="1.02" vaporized=""/>
    <tripinfo id="gen3.13" depart="44.00" departLane="(4_2)_1" departPos="5.10" departSpeed="0.00" departDelay="0.67" arrival="75.00" arrivalLane="(2_1)_0" arrivalPos="86.40" arrivalSpeed="15.50" duration="31.00" routeLength="176.73" waitingTime="2.00" waitingCount="1" stopTime="0.00" timeLoss="18.15" rerouteNo="0" devices="tripinfo_gen3.13 routing_gen3.13" vType="DEFAULT_VEHTYPE" speedFactor="0.94" vaporized=""/>
    <tripinfo id="gen3.14" depart="47.00" departLane="(4_2)_2" departPos="5.10" departSpeed="0.00" departDelay="0.34" arrival="76.00" arrivalLane="(2_1)_0" arrivalPos="86.40" arrivalSpeed="16.75" duration="29.00" routeLength="176.73" waitingTime="1.00" waitingCount="1" stopTime="0.00" timeLoss="17.56" rerouteNo="0" devices="tripinfo_gen3.14 routing_gen3.14" vType="DEFAULT_VEHTYPE" speedFactor="1.02" vaporized=""/>
    <tripinfo id="gen5.12" depart="60.00" departLane="(5_2)_2" departPos="5.10" departSpeed="0.00" departDelay="0.00" arrival="76.00" arrivalLane="(2_4)_2" arrivalPos="86.40" arrivalSpeed="16.52" duration="16.00" routeLength="194.90" waitingTime="0.00" waitingCount="0" stopTime="0.00" timeLoss="4.35" rerouteNo="0" devices="tripinfo_gen5.12 routing_gen5.12" vType="DEFAULT_VEHTYPE" speedFactor="1.02" vaporized=""/>
    <tripinfo id="gen3.15" depart="50.00" departLane="(4_2)_1" departPos="5.10" departSpeed="0.00" departDelay="0.01" arrival="79.00" arrivalLane="(2_1)_0" arrivalPos="86.40" arrivalSpeed="16.43" duration="29.00" routeLength="176.73" waitingTime="0.00" waitingCount="0" stopTime="0.00" timeLoss="17.92" rerouteNo="0" devices="tripinfo_gen3.15 routing_gen3.15" vType="DEFAULT_VEHTYPE" speedFactor="1.06" vaporized=""/>
    <tripinfo id="gen6.12" depart="60.00" departLane="(5_2)_0" departPos="5.10" departSpeed="0.00" departDelay="0.00" arrival="79.00" arrivalLane="(2_3)_0" arrivalPos="86.40" arrivalSpeed="16.69" duration="19.00" routeLength="176.73" waitingTime="0.00" waitingCount="0" stopTime="0.00" timeLoss="6.67" rerouteNo="0" devices="tripinfo_gen6.12 routing_gen6.12" vType="DEFAULT_VEHTYPE" speedFactor="1.02" vaporized=""/>
    <tripinfo id="gen4.18" depart="64.00" departLane="(4_2)_2" departPos="5.10" departSpeed="0.00" departDelay="4.01" arrival="80.00" arrivalLane="(2_5)_1" arrivalPos="86.40" arrivalSpeed="15.91" duration="16.00" routeLength="194.90" waitingTime="0.00" waitingCount="0" stopTime="0.00" timeLoss="3.89" rerouteNo="0" devices="tripinfo_gen4.18 routing_gen4.18" vType="DEFAULT_VEHTYPE" speedFactor="1.01" vaporized=""/>
    <tripinfo id="gen5.13" depart="65.00" departLane="(5_2)_2" departPos="5.10" departSpeed="0.00" departDelay="0.00" arrival="81.00" arrivalLane="(2_4)_1" arrivalPos="86.40" arrivalSpeed="17.01" duration="16.00" routeLength="194.90" waitingTime="0.00" waitingCount="0" stopTime="0.00" timeLoss="4.13" rerouteNo="0" devices="tripinfo_gen5.13 routing_gen5.13" vType="DEFAULT_VEHTYPE" speedFactor="1.06" vaporized=""/>
    <tripinfo id="gen3.16" depart="54.00" departLane="(4_2)_2" departPos="5.10" departSpeed="0.00" departDelay="0.67" arrival="82.00" arrivalLane="(2_1)_0" arrivalPos="86.40" arrivalSpeed="16.04" duration="28.00" routeLength="176.73" waitingTime="0.00" waitingCount="0" stopTime="0.00" timeLoss="15.82" rerouteNo="0" devices="tripinfo_gen3.16 routing_gen3.16" vType="DEFAULT_VEHTYPE" speedFactor="1.01" vaporized=""/>
    <tripinfo id="gen6.13" depart="65.00" departLane="(5_2)_1" departPos="5.10" departSpeed="0.00" departDelay="0.00" arrival="83.00" arrivalLane="(2_3)_0" arrivalPos="86.40" arrivalSpeed="16.66" duration="18.00" routeLength="176.73" waitingTime="0.00" waitingCount="0" stopTime="0.00" timeLoss="6.45" rerouteNo="0" devices="tripinfo_gen6.13 routing_gen6.13" vType="DEFAULT_VEHTYPE" speedFactor="1.01" vaporized=""/>
    <tripinfo id="gen4.20" depart="68.00" departLane="(4_2)_1" departPos="5.10" departSpeed="0.00" departDelay="1.34" arrival="83.00" arrivalLane="(2_5)_1" arrivalPos="86.40" arrivalSpeed="17.78" duration="15.00" routeLength="194.90" waitingTime="0.00" waitingCount="0" stopTime="0.00" timeLoss="4.10" rerouteNo="0" devices="tripinfo_gen4.20 routing_gen4.20" vType="DEFAULT_VEHTYPE" speedFactor="1.10" vaporized=""/>
    <tripinfo id="gen3.18" depart="61.00" departLane="(4_2)_2" departPos="5.10" departSpeed="0.00" departDelay="1.01" arrival="84.00" arrivalLane="(2_1)_0" arrivalPos="86.40" arrivalSpeed="16.43" duration="23.00" routeLength="176.73" waitingTime="0.00" waitingCount="0" stopTime="0.00" timeLoss="12.20" rerouteNo="0" devices="tripinfo_gen3.18 routing_gen3.18" vType="DEFAULT_VEHTYPE" speedFactor="1.04" vaporized=""/>
    <tripinfo id="gen4.19" depart="67.00" departLane="(4_2)_2" departPos="5.10" departSpeed="0.00" departDelay="3.67" arrival="84.00" arrivalLane="(2_5)_2" arrivalPos="86.40" arrivalSpeed="15.00" duration="17.00" routeLength="194.90" waitingTime="0.00" waitingCount="0" stopTime="0.00" timeLoss="3.80" rerouteNo="0" devices="tripinfo_gen4.19 routing_gen4.19" vType="DEFAULT_VEHTYPE" speedFactor="0.92" vaporized=""/>
    <tripinfo id="gen4.16" depart="57.00" departLane="(4_2)_0" departPos="5.10" departSpeed="0.00" departDelay="3.67" arrival="87.00" arrivalLane="(2_5)_0" arrivalPos="86.40" arrivalSpeed="16.97" duration="30.00" routeLength="194.90" waitingTime="0.00" waitingCount="0" stopTime="0.00" timeLoss="18.57" rerouteNo="0" devices="tripinfo_gen4.16 routing_gen4.16" vType="DEFAULT_VEHTYPE" speedFactor="1.09" vaporized=""/>