<?xml version="1.0" encoding="UTF-8"?>

<!-- generated on 2023-12-28 02:48:10 by Eclipse SUMO GUI Version 1.19.0
<configuration xmlns:xsi="http://www.w3.org/2001/XMLSchema-instance" xsi:noNamespaceSchemaLocation="http://sumo.dlr.de/xsd/sumoConfiguration.xsd">

    <input>
        <net-file value="grid/demo.net.xml"/>
        <route-files value="grid/demo.rou.xml"/>
        <additional-files value="grid/demo.det.xml"/>
    </input>

    <output>
        <tripinfo-output value="tripinfo.xml"/>
    </output>

    <time>
        <begin value="0"/>
        <end value="800"/>
    </time>

    <processing>
        <time-to-teleport value="-1"/>
    </processing>

    <traci_server>
        <remote-port value="45507"/>
    </traci_server>

</configuration>
-->

<detector xmlns:xsi="http://www.w3.org/2001/XMLSchema-instance" xsi:noNamespaceSchemaLocation="http://sumo.dlr.de/xsd/det_e2_file.xsd">
   <interval begin="0.00" end="30.00" id="detector-(1_2)-0" sampledSeconds="73.46" nVehEntered="5" nVehLeft="0" nVehSeen="5" meanSpeed="3.01" meanTimeLoss="12.07" meanOccupancy="15.35" maxOccupancy="31.65" meanMaxJamLengthInVehicles="1.43" meanMaxJamLengthInMeters="9.25" maxJamLengthInVehicles="4" maxJamLengthInMeters="27.58" jamLengthInVehiclesSum="43" jamLengthInMetersSum="277.62" meanHaltingDuration="9.60" maxHaltingDuration="19.00" haltingDurationSum="48.00" meanIntervalHaltingDuration="9.60" maxIntervalHaltingDuration="19.00" intervalHaltingDurationSum="48.00" startedHalts="5.00" meanVehicleNumber="2.50" maxVehicleNumber="5" />
   <interval begin="0.00" end="30.00" id="detector-(1_2)-1" sampledSeconds="25.05" nVehEntered="4" nVehLeft="3" nVehSeen="4" meanSpeed="6.22" meanTimeLoss="4.00" meanOccupancy="5.09" maxOccupancy="13.40" meanMaxJamLengthInVehicles="0.13" meanMaxJamLengthInMeters="0.67" maxJamLengthInVehicles="1" maxJamLengthInMeters="5.00" jamLengthInVehiclesSum="4" jamLengthInMetersSum="20.00" meanHaltingDuration="5.00" maxHaltingDuration="5.00" haltingDurationSum="5.00" meanIntervalHaltingDuration="5.00" maxIntervalHaltingDuration="5.00" intervalHaltingDurationSum="5.00" startedHalts="1.00" meanVehicleNumber="0.90" maxVehicleNumber="3" />
   <interval begin="0.00" end="30.00" id="detector-(1_2)-2" sampledSeconds="4.60" nVehEntered="2" nVehLeft="1" nVehSeen="2" meanSpeed="4.84" meanTimeLoss="1.63" meanOccupancy="0.86" maxOccupancy="6.33" meanMaxJamLengthInVehicles="0.00" meanMaxJamLengthInMeters="0.00" maxJamLengthInVehicles="0" maxJamLengthInMeters="0.00" jamLengthInVehiclesSum="0" jamLengthInMetersSum="0.00" meanHaltingDuration="0.00" maxHaltingDuration="0.00" haltingDurationSum="0.00" meanIntervalHaltingDuration="0.00" maxIntervalHaltingDuration="0.00" intervalHaltingDurationSum="0.00" startedHalts="0.00" meanVehicleNumber="0.20" maxVehicleNumber="1" />
   <interval begin="0.00" end="30.00" id="detector-(4_2)-0" sampledSeconds="83.65" nVehEntered="13" nVehLeft="10" nVehSeen="13" meanSpeed="7.92" meanTimeLoss="3.22" meanOccupancy="15.61" maxOccupancy="26.71" meanMaxJamLengthInVehicles="0.00" meanMaxJamLengthInMeters="0.00" maxJamLengthInVehicles="0" maxJamLengthInMeters="0.00" jamLengthInVehiclesSum="0" jamLengthInMetersSum="0.00" meanHaltingDuration="1.00" maxHaltingDuration="1.00" haltingDurationSum="4.00" meanIntervalHaltingDuration="1.00" maxIntervalHaltingDuration="1.00" intervalHaltingDurationSum="4.00" startedHalts="4.00" meanVehicleNumber="2.97" maxVehicleNumber="5" />
   <interval begin="0.00" end="30.00" id="detector-(4_2)-1" sampledSeconds="37.11" nVehEntered="12" nVehLeft="12" nVehSeen="12" meanSpeed="7.67" meanTimeLoss="1.61" meanOccupancy="7.12" maxOccupancy="18.99" meanMaxJamLengthInVehicles="0.00" meanMaxJamLengthInMeters="0.00" maxJamLengthInVehicles="0" maxJamLengthInMeters="0.00" jamLengthInVehiclesSum="0" jamLengthInMetersSum="0.00" meanHaltingDuration="1.00" maxHaltingDuration="1.00" haltingDurationSum="1.00" meanIntervalHaltingDuration="1.00" maxIntervalHaltingDuration="1.00" intervalHaltingDurationSum="1.00" startedHalts="1.00" meanVehicleNumber="1.37" maxVehicleNumber="4" />
   <interval begin="0.00" end="30.00" id="detector-(4_2)-2" sampledSeconds="24.51" nVehEntered="9" nVehLeft="7" nVehSeen="9" meanSpeed="8.47" meanTimeLoss="1.41" meanOccupancy="4.61" maxOccupancy="12.66" meanMaxJamLengthInVehicles="0.00" meanMaxJamLengthInMeters="0.00" maxJamLengthInVehicles="0" maxJamLengthInMeters="0.00" jamLengthInVehiclesSum="0" jamLengthInMetersSum="0.00" meanHaltingDuration="0.00" maxHaltingDuration="0.00" haltingDurationSum="0.00" meanIntervalHaltingDuration="0.00" maxIntervalHaltingDuration="0.00" intervalHaltingDurationSum="0.00" startedHalts="0.00" meanVehicleNumber="1.03" maxVehicleNumber="2" />
   <interval begin="0.00" end="30.00" id="detector-(3_2)-0" sampledSeconds="1.47" nVehEntered="1" nVehLeft="1" nVehSeen="1" meanSpeed="3.50" meanTimeLoss="1.14" meanOccupancy="0.26" maxOccupancy="6.33" meanMaxJamLengthInVehicles="0.00" meanMaxJamLengthInMeters="0.00" maxJamLengthInVehicles="0" maxJamLengthInMeters="0.00" jamLengthInVehiclesSum="0" jamLengthInMetersSum="0.00" meanHaltingDuration="0.00" maxHaltingDuration="0.00" haltingDurationSum="0.00" meanIntervalHaltingDuration="0.00" maxIntervalHaltingDuration="0.00" intervalHaltingDurationSum="0.00" startedHalts="0.00" meanVehicleNumber="0.07" maxVehicleNumber="1" />
   <interval begin="0.00" end="30.00" id="detector-(3_2)-1" sampledSeconds="9.75" nVehEntered="4" nVehLeft="3" nVehSeen="4" meanSpeed="4.52" meanTimeLoss="1.69" meanOccupancy="1.93" maxOccupancy="6.33" meanMaxJamLengthInVehicles="0.03" meanMaxJamLengthInMeters="0.17" maxJamLengthInVehicles="1" maxJamLengthInMeters="5.00" jamLengthInVehiclesSum="1" jamLengthInMetersSum="5.00" meanHaltingDuration="2.00" maxHaltingDuration="2.00" haltingDurationSum="2.00" meanIntervalHaltingDuration="2.00" maxIntervalHaltingDuration="2.00" intervalHaltingDurationSum="2.00" startedHalts="1.00" meanVehicleNumber="0.37" maxVehicleNumber="1" />
   <interval begin="0.00" end="30.00" id="detector-(3_2)-2" sampledSeconds="83.74" nVehEntered="6" nVehLeft="1" nVehSeen="6" meanSpeed="3.50" meanTimeLoss="10.77" meanOccupancy="17.48" maxOccupancy="36.06" meanMaxJamLengthInVehicles="1.37" meanMaxJamLengthInMeters="8.77" maxJamLengthInVehicles="4" maxJamLengthInMeters="27.54" jamLengthInVehiclesSum="41" jamLengthInMetersSum="263.04" meanHaltingDuration="7.25" maxHaltingDuration="13.00" haltingDurationSum="29.00" meanIntervalHaltingDuration="7.25" maxIntervalHaltingDuration="13.00" intervalHaltingDurationSum="29.00" startedHalts="5.00" meanVehicleNumber="2.87" maxVehicleNumber="6" />
   <interval begin="0.00" end="30.00" id="detector-(5_2)-0" sampledSeconds="65.51" nVehEntered="10" nVehLeft="8" nVehSeen="10" meanSpeed="7.87" meanTimeLoss="3.10" meanOccupancy="12.52" maxOccupancy="25.24" meanMaxJamLengthInVehicles="0.00" meanMaxJamLengthInMeters="0.00" maxJamLengthInVehicles="0" maxJamLengthInMeters="0.00" jamLengthInVehiclesSum="0" jamLengthInMetersSum="0.00" meanHaltingDuration="1.00" maxHaltingDuration="1.00" haltingDurationSum="2.00" meanIntervalHaltingDuration="1.00" maxIntervalHaltingDuration="1.00" intervalHaltingDurationSum="2.00" startedHalts="2.00" meanVehicleNumber="2.33" maxVehicleNumber="5" />
   <interval begin="0.00" end="30.00" id="detector-(5_2)-1" sampledSeconds="29.95" nVehEntered="11" nVehLeft="11" nVehSeen="11" meanSpeed="7.85" meanTimeLoss="1.43" meanOccupancy="5.73" maxOccupancy="12.71" meanMaxJamLengthInVehicles="0.00" meanMaxJamLengthInMeters="0.00" maxJamLengthInVehicles="0" maxJamLengthInMeters="0.00" jamLengthInVehiclesSum="0" jamLengthInMetersSum="0.00" meanHaltingDuration="1.00" maxHaltingDuration="1.00" haltingDurationSum="1.00" meanIntervalHaltingDuration="1.00" maxIntervalHaltingDuration="1.00" intervalHaltingDurationSum="1.00" startedHalts="1.00" meanVehicleNumber="1.13" maxVehicleNumber="3" />
   <interval begin="0.00" end="30.00" id="detector-(5_2)-2" sampledSeconds="13.28" nVehEntered="5" nVehLeft="5" nVehSeen="5" meanSpeed="7.38" meanTimeLoss="1.49" meanOccupancy="2.43" maxOccupancy="6.33" meanMaxJamLengthInVehicles="0.00" meanMaxJamLengthInMeters="0.00" maxJamLengthInVehicles="0" maxJamLengthInMeters="0.00" jamLengthInVehiclesSum="0" jamLengthInMetersSum="0.00" meanHaltingDuration="1.00" maxHaltingDuration="1.00" haltingDurationSum="2.00" meanIntervalHaltingDuration="1.00" maxIntervalHaltingDuration="1.00" intervalHaltingDurationSum="2.00" startedHalts="2.00" meanVehicleNumber="0.57" maxVehicleNumber="1" />
   <interval begin="30.00" end="60.00" id="detector-(1_2)-0" sampledSeconds="209.01" nVehEntered="6" nVehLeft="3" nVehSeen="11" meanSpeed="1.08" meanTimeLoss="17.76" meanOccupancy="43.53" maxOccupancy="51.16" meanMaxJamLengthInVehicles="4.40" meanMaxJamLengthInMeters="31.02" maxJamLengthInVehicles="7" maxJamLengthInMeters="51.03" jamLengthInVehiclesSum="145" jamLengthInMetersSum="1008.48" meanHaltingDuration="9.00" maxHaltingDuration="35.00" haltingDurationSum="189.00" meanIntervalHaltingDuration="7.29" maxIntervalHaltingDuration="17.00" intervalHaltingDurationSum="153.00" startedHalts="18.00" meanVehicleNumber="7.13" maxVehicleNumber="9" />
   <interval begin="30.00" end="60.00" id="detector-(1_2)-1" sampledSeconds="73.24" nVehEntered="5" nVehLeft="2" nVehSeen="6" meanSpeed="2.40" meanTimeLoss="10.53" meanOccupancy="15.05" maxOccupancy="24.70" meanMaxJamLengthInVehicles="1.33" meanMaxJamLengthInMeters="7.67" maxJamLengthInVehicles="3" maxJamLengthInMeters="20.01" jamLengthInVehiclesSum="40" jamLengthInMetersSum="230.07" meanHaltingDuration="8.33" maxHaltingDuration="20.00" haltingDurationSum="50.00" meanIntervalHaltingDuration="7.50" maxIntervalHaltingDuration="15.00" intervalHaltingDurationSum="45.00" startedHalts="5.00" meanVehicleNumber="2.50" maxVehicleNumber="4" />
   <interval begin="30.00" end="60.00" id="detector-(1_2)-2" sampledSeconds="1.00" nVehEntered="0" nVehLeft="1" nVehSeen="1" meanSpeed="5.38" meanTimeLoss="0.69" meanOccupancy="0.21" maxOccupancy="6.33" meanMaxJamLengthInVehicles="0.00" meanMaxJamLengthInMeters="0.00" maxJamLengthInVehicles="0" maxJamLengthInMeters="0.00" jamLengthInVehiclesSum="0" jamLengthInMetersSum="0.00" meanHaltingDuration="0.00" maxHaltingDuration="0.00" haltingDurationSum="0.00" meanIntervalHaltingDuration="0.00" maxIntervalHaltingDuration="0.00" intervalHaltingDurationSum="0.00" startedHalts="0.00" meanVehicleNumber="0.03" maxVehicleNumber="1" />
   <interval begin="30.00" end="60.00" id="detector-(4_2)-0" sampledSeconds="181.88" nVehEntered="12" nVehLeft="8" nVehSeen="15" meanSpeed="3.92" meanTimeLoss="9.03" meanOccupancy="36.08" maxOccupancy="44.30" meanMaxJamLengthInVehicles="1.77" meanMaxJamLengthInMeters="11.87" maxJamLengthInVehicles="5" maxJamLengthInMeters="35.18" jamLengthInVehiclesSum="53" jamLengthInMetersSum="356.03" meanHaltingDuration="6.30" maxHaltingDuration="9.00" haltingDurationSum="63.00" meanIntervalHaltingDuration="6.30" maxIntervalHaltingDuration="9.00" intervalHaltingDurationSum="63.00" startedHalts="10.00" meanVehicleNumber="6.27" maxVehicleNumber="8" />
   <interval begin="30.00" end="60.00" id="detector-(4_2)-1" sampledSeconds="59.15" nVehEntered="16" nVehLeft="13" nVehSeen="16" meanSpeed="6.75" meanTimeLoss="2.15" meanOccupancy="10.78" maxOccupancy="24.91" meanMaxJamLengthInVehicles="0.13" meanMaxJamLengthInMeters="0.67" maxJamLengthInVehicles="1" maxJamLengthInMeters="5.00" jamLengthInVehiclesSum="4" jamLengthInMetersSum="20.00" meanHaltingDuration="2.00" maxHaltingDuration="3.00" haltingDurationSum="8.00" meanIntervalHaltingDuration="2.00" maxIntervalHaltingDuration="3.00" intervalHaltingDurationSum="8.00" startedHalts="6.00" meanVehicleNumber="2.27" maxVehicleNumber="5" />
   <interval begin="30.00" end="60.00" id="detector-(4_2)-2" sampledSeconds="30.59" nVehEntered="7" nVehLeft="9" nVehSeen="9" meanSpeed="6.60" meanTimeLoss="2.00" meanOccupancy="5.47" maxOccupancy="18.20" meanMaxJamLengthInVehicles="0.00" meanMaxJamLengthInMeters="0.00" maxJamLengthInVehicles="0" maxJamLengthInMeters="0.00" jamLengthInVehiclesSum="0" jamLengthInMetersSum="0.00" meanHaltingDuration="1.00" maxHaltingDuration="1.00" haltingDurationSum="2.00" meanIntervalHaltingDuration="1.00" maxIntervalHaltingDuration="1.00" intervalHaltingDurationSum="2.00" startedHalts="3.00" meanVehicleNumber="1.20" maxVehicleNumber="3" />
   <interval begin="30.00" end="60.00" id="detector-(3_2)-0" sampledSeconds="2.68" nVehEntered="1" nVehLeft="1" nVehSeen="1" meanSpeed="1.86" meanTimeLoss="2.36" meanOccupancy="0.34" maxOccupancy="6.33" meanMaxJamLengthInVehicles="0.00" meanMaxJamLengthInMeters="0.00" maxJamLengthInVehicles="0" maxJamLengthInMeters="0.00" jamLengthInVehiclesSum="0" jamLengthInMetersSum="0.00" meanHaltingDuration="1.00" maxHaltingDuration="1.00" haltingDurationSum="1.00" meanIntervalHaltingDuration="1.00" maxIntervalHaltingDuration="1.00" intervalHaltingDurationSum="1.00" startedHalts="1.00" meanVehicleNumber="0.10" maxVehicleNumber="1" />
   <interval begin="30.00" end="60.00" id="detector-(3_2)-1" sampledSeconds="37.29" nVehEntered="4" nVehLeft="3" nVehSeen="5" meanSpeed="1.10" meanTimeLoss="6.94" meanOccupancy="7.64" maxOccupancy="12.66" meanMaxJamLengthInVehicles="0.83" meanMaxJamLengthInMeters="4.17" maxJamLengthInVehicles="1" maxJamLengthInMeters="5.00" jamLengthInVehiclesSum="25" jamLengthInMetersSum="125.00" meanHaltingDuration="6.50" maxHaltingDuration="12.00" haltingDurationSum="13.00" meanIntervalHaltingDuration="6.50" maxIntervalHaltingDuration="12.00" intervalHaltingDurationSum="13.00" startedHalts="2.00" meanVehicleNumber="1.27" maxVehicleNumber="2" />
   <interval begin="30.00" end="60.00" id="detector-(3_2)-2" sampledSeconds="207.59" nVehEntered="6" nVehLeft="3" nVehSeen="11" meanSpeed="1.56" meanTimeLoss="17.13" meanOccupancy="43.47" maxOccupancy="50.63" meanMaxJamLengthInVehicles="3.33" meanMaxJamLengthInMeters="22.82" maxJamLengthInVehicles="6" maxJamLengthInMeters="43.17" jamLengthInVehiclesSum="116" jamLengthInMetersSum="782.97" meanHaltingDuration="5.65" maxHaltingDuration="30.00" haltingDurationSum="113.00" meanIntervalHaltingDuration="5.30" maxIntervalHaltingDuration="30.00" intervalHaltingDurationSum="106.00" startedHalts="21.00" meanVehicleNumber="7.03" maxVehicleNumber="8" />
   <interval begin="30.00" end="60.00" id="detector-(5_2)-0" sampledSeconds="82.43" nVehEntered="9" nVehLeft="8" nVehSeen="11" meanSpeed="6.58" meanTimeLoss="4.21" meanOccupancy="15.79" maxOccupancy="31.65" meanMaxJamLengthInVehicles="0.10" meanMaxJamLengthInMeters="0.47" maxJamLengthInVehicles="1" maxJamLengthInMeters="4.87" jamLengthInVehiclesSum="3" jamLengthInMetersSum="14.24" meanHaltingDuration="1.75" maxHaltingDuration="4.00" haltingDurationSum="7.00" meanIntervalHaltingDuration="1.75" maxIntervalHaltingDuration="4.00" intervalHaltingDurationSum="7.00" startedHalts="4.00" meanVehicleNumber="2.93" maxVehicleNumber="6" />
   <interval begin="30.00" end="60.00" id="detector-(5_2)-1" sampledSeconds="32.68" nVehEntered="9" nVehLeft="8" nVehSeen="9" meanSpeed="7.13" meanTimeLoss="2.12" meanOccupancy="5.92" maxOccupancy="18.99" meanMaxJamLengthInVehicles="0.00" meanMaxJamLengthInMeters="0.00" maxJamLengthInVehicles="0" maxJamLengthInMeters="0.00" jamLengthInVehiclesSum="0" jamLengthInMetersSum="0.00" meanHaltingDuration="1.00" maxHaltingDuration="1.00" haltingDurationSum="1.00" meanIntervalHaltingDuration="1.00" maxIntervalHaltingDuration="1.00" intervalHaltingDurationSum="1.00" startedHalts="2.00" meanVehicleNumber="1.20" maxVehicleNumber="3" />
   <interval begin="30.00" end="60.00" id="detector-(5_2)-2" sampledSeconds="28.17" nVehEntered="5" nVehLeft="5" nVehSeen="5" meanSpeed="6.58" meanTimeLoss="3.55" meanOccupancy="5.34" maxOccupancy="12.66" meanMaxJamLengthInVehicles="0.17" meanMaxJamLengthInMeters="0.77" maxJamLengthInVehicles="1" maxJamLengthInMeters="5.00" jamLengthInVehiclesSum="5" jamLengthInMetersSum="23.20" meanHaltingDuration="3.50" maxHaltingDuration="6.00" haltingDurationSum="7.00" meanIntervalHaltingDuration="3.50" maxIntervalHaltingDuration="6.00" intervalHaltingDurationSum="7.00" startedHalts="3.00" meanVehicleNumber="1.03" maxVehicleNumber="2" />
   <interval begin="60.00" end="90.00" id="detector-(1_2)-0" sampledSeconds="226.28" nVehEntered="2" nVehLeft="1" nVehSeen="10" meanSpeed="0.23" meanTimeLoss="22.33" meanOccupancy="47.66" maxOccupancy="55.65" meanMaxJamLengthInVehicles="6.73" meanMaxJamLengthInMeters="48.02" maxJamLengthInVehicles="8" maxJamLengthInMeters="57.81" jamLengthInVehiclesSum="207" jamLengthInMetersSum="1470.81" meanHaltingDuration="23.27" maxHaltingDuration="41.00" haltingDurationSum="256.00" meanIntervalHaltingDuration="19.09" maxIntervalHaltingDuration="30.00" intervalHaltingDurationSum="210.00" startedHalts="5.00" meanVehicleNumber="7.57" maxVehicleNumber="9" />
   <interval begin="60.00" end="90.00" id="detector-(1_2)-1" sampledSeconds="185.88" nVehEntered="7" nVehLeft="4" nVehSeen="11" meanSpeed="1.58" meanTimeLoss="15.23" meanOccupancy="38.89" maxOccupancy="50.63" meanMaxJamLengthInVehicles="3.70" meanMaxJamLengthInMeters="25.47" maxJamLengthInVehicles="7" maxJamLengthInMeters="50.08" jamLengthInVehiclesSum="120" jamLengthInMetersSum="817.94" meanHaltingDuration="11.27" maxHaltingDuration="41.00" haltingDurationSum="124.00" meanIntervalHaltingDuration="10.09" maxIntervalHaltingDuration="30.00" intervalHaltingDurationSum="111.00" startedHalts="11.00" meanVehicleNumber="6.30" maxVehicleNumber="8" />
   <interval begin="60.00" end="90.00" id="detector-(1_2)-2" sampledSeconds="46.48" nVehEntered="4" nVehLeft="1" nVehSeen="4" meanSpeed="0.56" meanTimeLoss="11.23" meanOccupancy="9.76" maxOccupancy="18.99" meanMaxJamLengthInVehicles="1.20" meanMaxJamLengthInMeters="6.84" maxJamLengthInVehicles="2" maxJamLengthInMeters="12.51" jamLengthInVehiclesSum="36" jamLengthInMetersSum="205.07" meanHaltingDuration="19.00" maxHaltingDuration="27.00" haltingDurationSum="38.00" meanIntervalHaltingDuration="19.00" maxIntervalHaltingDuration="27.00" intervalHaltingDurationSum="38.00" startedHalts="2.00" meanVehicleNumber="1.57" maxVehicleNumber="3" />
   <interval begin="60.00" end="90.00" id="detector-(4_2)-0" sampledSeconds="177.47" nVehEntered="10" nVehLeft="13" nVehSeen="17" meanSpeed="4.78" meanTimeLoss="7.07" meanOccupancy="33.82" maxOccupancy="43.47" meanMaxJamLengthInVehicles="0.13" meanMaxJamLengthInMeters="0.45" maxJamLengthInVehicles="1" maxJamLengthInMeters="5.00" jamLengthInVehiclesSum="4" jamLengthInMetersSum="13.36" meanHaltingDuration="2.00" maxHaltingDuration="3.00" haltingDurationSum="12.00" meanIntervalHaltingDuration="1.33" maxIntervalHaltingDuration="2.00" intervalHaltingDurationSum="8.00" startedHalts="4.00" meanVehicleNumber="6.17" maxVehicleNumber="7" />
   <interval begin="60.00" end="90.00" id="detector-(4_2)-1" sampledSeconds="54.44" nVehEntered="11" nVehLeft="12" nVehSeen="14" meanSpeed="6.44" meanTimeLoss="2.47" meanOccupancy="8.80" maxOccupancy="17.24" meanMaxJamLengthInVehicles="0.27" meanMaxJamLengthInMeters="0.36" maxJamLengthInVehicles="1" maxJamLengthInMeters="5.00" jamLengthInVehiclesSum="8" jamLengthInMetersSum="10.78" meanHaltingDuration="3.00" maxHaltingDuration="6.00" haltingDurationSum="12.00" meanIntervalHaltingDuration="2.75" maxIntervalHaltingDuration="5.00" intervalHaltingDurationSum="11.00" startedHalts="5.00" meanVehicleNumber="1.97" maxVehicleNumber="3" />
   <interval begin="60.00" end="90.00" id="detector-(4_2)-2" sampledSeconds="35.17" nVehEntered="10" nVehLeft="8" nVehSeen="10" meanSpeed="6.26" meanTimeLoss="2.17" meanOccupancy="5.82" maxOccupancy="12.66" meanMaxJamLengthInVehicles="0.07" meanMaxJamLengthInMeters="0.01" maxJamLengthInVehicles="1" maxJamLengthInMeters="0.17" jamLengthInVehiclesSum="2" jamLengthInMetersSum="0.33" meanHaltingDuration="2.00" maxHaltingDuration="3.00" haltingDurationSum="4.00" meanIntervalHaltingDuration="2.00" maxIntervalHaltingDuration="3.00" intervalHaltingDurationSum="4.00" startedHalts="4.00" meanVehicleNumber="1.37" maxVehicleNumber="2" />
   <interval begin="60.00" end="90.00" id="detector-(3_2)-0" sampledSeconds="34.41" nVehEntered="4" nVehLeft="1" nVehSeen="4" meanSpeed="0.89" meanTimeLoss="8.15" meanOccupancy="7.21" maxOccupancy="18.99" meanMaxJamLengthInVehicles="0.83" meanMaxJamLengthInMeters="4.58" maxJamLengthInVehicles="2" maxJamLengthInMeters="12.50" jamLengthInVehiclesSum="25" jamLengthInMetersSum="137.51" meanHaltingDuration="13.50" maxHaltingDuration="21.00" haltingDurationSum="27.00" meanIntervalHaltingDuration="13.50" maxIntervalHaltingDuration="21.00" intervalHaltingDurationSum="27.00" startedHalts="2.00" meanVehicleNumber="1.17" maxVehicleNumber="3" />
   <interval begin="60.00" end="90.00" id="detector-(3_2)-1" sampledSeconds="123.91" nVehEntered="8" nVehLeft="5" nVehSeen="10" meanSpeed="1.34" meanTimeLoss="11.35" meanOccupancy="25.97" maxOccupancy="39.48" meanMaxJamLengthInVehicles="2.57" meanMaxJamLengthInMeters="17.56" maxJamLengthInVehicles="4" maxJamLengthInMeters="33.03" jamLengthInVehiclesSum="81" jamLengthInMetersSum="551.86" meanHaltingDuration="11.29" maxHaltingDuration="42.00" haltingDurationSum="79.00" meanIntervalHaltingDuration="9.57" maxIntervalHaltingDuration="30.00" intervalHaltingDurationSum="67.00" startedHalts="8.00" meanVehicleNumber="4.20" maxVehicleNumber="7" />
   <interval begin="60.00" end="90.00" id="detector-(3_2)-2" sampledSeconds="236.47" nVehEntered="4" nVehLeft="4" nVehSeen="12" meanSpeed="0.83" meanTimeLoss="18.73" meanOccupancy="49.76" maxOccupancy="56.96" meanMaxJamLengthInVehicles="5.10" meanMaxJamLengthInMeters="35.84" maxJamLengthInVehicles="8" maxJamLengthInMeters="57.80" jamLengthInVehiclesSum="168" jamLengthInMetersSum="1158.99" meanHaltingDuration="10.57" maxHaltingDuration="60.00" haltingDurationSum="222.00" meanIntervalHaltingDuration="8.10" maxIntervalHaltingDuration="30.00" intervalHaltingDurationSum="170.00" startedHalts="19.00" meanVehicleNumber="7.93" maxVehicleNumber="9" />
   <interval begin="60.00" end="90.00" id="detector-(5_2)-0" sampledSeconds="66.12" nVehEntered="8" nVehLeft="8" nVehSeen="11" meanSpeed="8.48" meanTimeLoss="2.56" meanOccupancy="11.90" maxOccupancy="18.99" meanMaxJamLengthInVehicles="0.00" meanMaxJamLengthInMeters="0.00" maxJamLengthInVehicles="0" maxJamLengthInMeters="0.00" jamLengthInVehiclesSum="0" jamLengthInMetersSum="0.00" meanHaltingDuration="0.00" maxHaltingDuration="0.00" haltingDurationSum="0.00" meanIntervalHaltingDuration="0.00" maxIntervalHaltingDuration="0.00" intervalHaltingDurationSum="0.00" startedHalts="0.00" meanVehicleNumber="2.47" maxVehicleNumber="4" />
   <interval begin="60.00" end="90.00" id="detector-(5_2)-1" sampledSeconds="27.32" nVehEntered="6" nVehLeft="6" nVehSeen="7" meanSpeed="10.39" meanTimeLoss="1.38" meanOccupancy="5.03" maxOccupancy="12.66" meanMaxJamLengthInVehicles="0.00" meanMaxJamLengthInMeters="0.00" maxJamLengthInVehicles="0" maxJamLengthInMeters="0.00" jamLengthInVehiclesSum="0" jamLengthInMetersSum="0.00" meanHaltingDuration="1.00" maxHaltingDuration="1.00" haltingDurationSum="1.00" meanIntervalHaltingDuration="1.00" maxIntervalHaltingDuration="1.00" intervalHaltingDurationSum="1.00" startedHalts="1.00" meanVehicleNumber="1.00" maxVehicleNumber="2" />
   <interval begin="60.00" end="90.00" id="detector-(5_2)-2" sampledSeconds="24.06" nVehEntered="5" nVehLeft="5" nVehSeen="5" meanSpeed="8.87" meanTimeLoss="2.29" meanOccupancy="4.67" maxOccupancy="12.66" meanMaxJamLengthInVehicles="0.00" meanMaxJamLengthInMeters="0.00" maxJamLengthInVehicles="0" maxJamLengthInMeters="0.00" jamLengthInVehiclesSum="0" jamLengthInMetersSum="0.00" meanHaltingDuration="0.00" maxHaltingDuration="0.00" haltingDurationSum="0.00" meanIntervalHaltingDuration="0.00" maxIntervalHaltingDuration="0.00" intervalHaltingDurationSum="0.00" startedHalts="0.00" meanVehicleNumber="0.93" maxVehicleNumber="2" />
   <interval begin="90.00" end="120.00" id="detector-(1_2)-0" sampledSeconds="244.72" nVehEntered="0" nVehLeft="2" nVehSeen="9" meanSpeed="0.33" meanTimeLoss="26.67" meanOccupancy="51.38" maxOccupancy="56.96" meanMaxJamLengthInVehicles="6.77" meanMaxJamLengthInMeters="49.28" maxJamLengthInVehicles="9" maxJamLengthInMeters="65.09" jamLengthInVehiclesSum="221" jamLengthInMetersSum="1602.01" meanHaltingDuration="27.56" maxHaltingDuration="52.00" haltingDurationSum="441.00" meanIntervalHaltingDuration="12.81" maxIntervalHaltingDuration="30.00" intervalHaltingDurationSum="205.00" startedHalts="9.00" meanVehicleNumber="8.17" maxVehicleNumber="9" />
   <interval begin="90.00" end="120.00" id="detector-(1_2)-1" sampledSeconds="218.70" nVehEntered="3" nVehLeft="3" nVehSeen="10" meanSpeed="0.77" meanTimeLoss="20.94" meanOccupancy="45.82" maxOccupancy="50.63" meanMaxJamLengthInVehicles="4.47" meanMaxJamLengthInMeters="32.28" maxJamLengthInVehicles="8" maxJamLengthInMeters="62.33" jamLengthInVehiclesSum="153" jamLengthInMetersSum="1084.55" meanHaltingDuration="9.04" maxHaltingDuration="46.00" haltingDurationSum="244.00" meanIntervalHaltingDuration="5.67" maxIntervalHaltingDuration="18.00" intervalHaltingDurationSum="153.00" startedHalts="24.00" meanVehicleNumber="7.33" maxVehicleNumber="8" />
   <interval begin="90.00" end="120.00" id="detector-(1_2)-2" sampledSeconds="84.90" nVehEntered="3" nVehLeft="2" nVehSeen="6" meanSpeed="0.62" meanTimeLoss="13.61" meanOccupancy="17.58" maxOccupancy="25.32" meanMaxJamLengthInVehicles="2.10" meanMaxJamLengthInMeters="13.44" maxJamLengthInVehicles="4" maxJamLengthInMeters="27.63" jamLengthInVehiclesSum="63" jamLengthInMetersSum="403.25" meanHaltingDuration="15.14" maxHaltingDuration="32.00" haltingDurationSum="106.00" meanIntervalHaltingDuration="9.71" maxIntervalHaltingDuration="21.00" intervalHaltingDurationSum="68.00" startedHalts="5.00" meanVehicleNumber="2.87" maxVehicleNumber="4" />
   <interval begin="90.00" end="120.00" id="detector-(4_2)-0" sampledSeconds="224.28" nVehEntered="9" nVehLeft="8" nVehSeen="13" meanSpeed="2.12" meanTimeLoss="14.87" meanOccupancy="44.93" maxOccupancy="56.96" meanMaxJamLengthInVehicles="3.53" meanMaxJamLengthInMeters="25.40" maxJamLengthInVehicles="7" maxJamLengthInMeters="53.59" jamLengthInVehiclesSum="106" jamLengthInMetersSum="762.12" meanHaltingDuration="7.93" maxHaltingDuration="14.00" haltingDurationSum="111.00" meanIntervalHaltingDuration="7.93" maxIntervalHaltingDuration="14.00" intervalHaltingDurationSum="111.00" startedHalts="15.00" meanVehicleNumber="7.60" maxVehicleNumber="10" />
   <interval begin="90.00" end="120.00" id="detector-(4_2)-1" sampledSeconds="49.04" nVehEntered="8" nVehLeft="10" nVehSeen="10" meanSpeed="5.47" meanTimeLoss="3.38" meanOccupancy="9.18" maxOccupancy="20.18" meanMaxJamLengthInVehicles="0.37" meanMaxJamLengthInMeters="3.76" maxJamLengthInVehicles="2" maxJamLengthInMeters="72.27" jamLengthInVehiclesSum="11" jamLengthInMetersSum="112.68" meanHaltingDuration="5.50" maxHaltingDuration="10.00" haltingDurationSum="11.00" meanIntervalHaltingDuration="5.50" maxIntervalHaltingDuration="10.00" intervalHaltingDurationSum="11.00" startedHalts="6.00" meanVehicleNumber="1.77" maxVehicleNumber="4" />
   <interval begin="90.00" end="120.00" id="detector-(4_2)-2" sampledSeconds="47.74" nVehEntered="4" nVehLeft="6" nVehSeen="6" meanSpeed="5.37" meanTimeLoss="5.50" meanOccupancy="9.17" maxOccupancy="18.99" meanMaxJamLengthInVehicles="0.37" meanMaxJamLengthInMeters="2.03" maxJamLengthInVehicles="2" maxJamLengthInMeters="12.56" jamLengthInVehiclesSum="11" jamLengthInMetersSum="60.77" meanHaltingDuration="4.67" maxHaltingDuration="8.00" haltingDurationSum="14.00" meanIntervalHaltingDuration="4.67" maxIntervalHaltingDuration="8.00" intervalHaltingDurationSum="14.00" startedHalts="3.00" meanVehicleNumber="1.70" maxVehicleNumber="4" />
   <interval begin="90.00" end="120.00" id="detector-(3_2)-0" sampledSeconds="82.56" nVehEntered="1" nVehLeft="1" nVehSeen="4" meanSpeed="0.46" meanTimeLoss="20.06" meanOccupancy="17.20" maxOccupancy="18.99" meanMaxJamLengthInVehicles="2.27" meanMaxJamLengthInMeters="15.74" maxJamLengthInVehicles="3" maxJamLengthInMeters="21.27" jamLengthInVehiclesSum="68" jamLengthInMetersSum="472.12" meanHaltingDuration="14.29" maxHaltingDuration="26.00" haltingDurationSum="100.00" meanIntervalHaltingDuration="10.43" maxIntervalHaltingDuration="22.00" intervalHaltingDurationSum="73.00" startedHalts="5.00" meanVehicleNumber="2.77" maxVehicleNumber="3" />
   <interval begin="90.00" end="120.00" id="detector-(3_2)-1" sampledSeconds="149.02" nVehEntered="2" nVehLeft="2" nVehSeen="7" meanSpeed="0.54" meanTimeLoss="20.58" meanOccupancy="30.83" maxOccupancy="34.96" meanMaxJamLengthInVehicles="3.50" meanMaxJamLengthInMeters="24.70" maxJamLengthInVehicles="5" maxJamLengthInMeters="40.54" jamLengthInVehiclesSum="113" jamLengthInMetersSum="778.77" meanHaltingDuration="12.27" maxHaltingDuration="47.00" haltingDurationSum="184.00" meanIntervalHaltingDuration="7.73" maxIntervalHaltingDuration="17.00" intervalHaltingDurationSum="116.00" startedHalts="12.00" meanVehicleNumber="5.00" maxVehicleNumber="6" />
   <interval begin="90.00" end="120.00" id="detector-(3_2)-2" sampledSeconds="233.40" nVehEntered="2" nVehLeft="4" nVehSeen="10" meanSpeed="0.54" meanTimeLoss="22.60" meanOccupancy="48.93" maxOccupancy="56.96" meanMaxJamLengthInVehicles="5.83" meanMaxJamLengthInMeters="43.04" maxJamLengthInVehicles="8" maxJamLengthInMeters="65.16" jamLengthInVehiclesSum="193" jamLengthInMetersSum="1394.35" meanHaltingDuration="20.17" maxHaltingDuration="65.00" haltingDurationSum="363.00" meanIntervalHaltingDuration="10.67" maxIntervalHaltingDuration="22.00" intervalHaltingDurationSum="192.00" startedHalts="13.00" meanVehicleNumber="7.83" maxVehicleNumber="10" />